<?xml version="1.0" encoding="UTF-8"?>

<!-- generated on Fri 11 Oct 2019 07:31:53 PM CST by Eclipse SUMO GUI Version 1.3.1
<configuration xmlns:xsi="http://www.w3.org/2001/XMLSchema-instance" xsi:noNamespaceSchemaLocation="http://sumo.dlr.de/xsd/sumoConfiguration.xsd">

    <input>
        <net-file value="/run/media/ap_tech/ap@tech/Traffic-Simulations/Source/acosta_buslanes.net.xml"/>
        <route-files value="/run/media/ap_tech/ap@tech/Traffic-Simulations/Source/acosta.rou.xml,/run/media/ap_tech/ap@tech/Traffic-Simulations/Source/acosta_busses.rou.xml"/>
        <additional-files value="/run/media/ap_tech/ap@tech/Traffic-Simulations/Source/acosta_vtypes.add.xml,/run/media/ap_tech/ap@tech/Traffic-Simulations/Source/acosta_detectors.add.xml,/run/media/ap_tech/ap@tech/Traffic-Simulations/Source/acosta_bus_stops.add.xml,/run/media/ap_tech/ap@tech/Traffic-Simulations/Source/acosta_tls.add.xml"/>
    </input>

    <output>
        <tripinfo-output value="/run/media/ap_tech/ap@tech/Traffic-Simulations/Source/tripinfos.xml"/>
    </output>

    <report>
        <log value="/run/media/ap_tech/ap@tech/Traffic-Simulations/Source/sumo_log.txt"/>
        <no-step-log value="true"/>
    </report>

    <gui_only>
        <gui-settings-file value="/run/media/ap_tech/ap@tech/Traffic-Simulations/Source/settings.gui.xml"/>
    </gui_only>

</configuration>
-->

<tripinfos xmlns:xsi="http://www.w3.org/2001/XMLSchema-instance" xsi:noNamespaceSchemaLocation="http://sumo.dlr.de/xsd/tripinfo_file.xsd">
    <tripinfo id="Pepoli_8_16" depart="27.00" departLane="210_0" departPos="0.00" departSpeed="0.00" departDelay="0.00" arrival="80.00" arrivalLane="134b_0" arrivalPos="158.70" arrivalSpeed="14.73" duration="53.00" routeLength="693.78" waitingTime="0.00" waitingCount="0" stopTime="0.00" timeLoss="6.51" rerouteNo="0" devices="tripinfo_Pepoli_8_16" vType="passenger1" speedFactor="1.09" vaporized=""/>
    <tripinfo id="Pepoli_8_21" depart="36.00" departLane="210_0" departPos="0.00" departSpeed="0.00" departDelay="0.00" arrival="89.00" arrivalLane="134b_0" arrivalPos="158.70" arrivalSpeed="17.31" duration="53.00" routeLength="693.78" waitingTime="0.00" waitingCount="0" stopTime="0.00" timeLoss="12.67" rerouteNo="0" devices="tripinfo_Pepoli_8_21" vType="passenger1" speedFactor="1.25" vaporized=""/>
    <tripinfo id="Pepoli_8_23" depart="39.00" departLane="210_0" departPos="0.00" departSpeed="0.00" departDelay="0.00" arrival="92.00" arrivalLane="134b_0" arrivalPos="158.70" arrivalSpeed="14.74" duration="53.00" routeLength="693.78" waitingTime="0.00" waitingCount="0" stopTime="0.00" timeLoss="8.44" rerouteNo="0" devices="tripinfo_Pepoli_8_23" vType="passenger1" speedFactor="1.13" vaporized=""/>
    <tripinfo id="Togliatti_2_8" depart="11.00" departLane="85_0" departPos="0.00" departSpeed="0.00" departDelay="0.00" arrival="96.00" arrivalLane="77[1][1]_0" arrivalPos="464.92" arrivalSpeed="14.65" duration="85.00" routeLength="1149.26" waitingTime="0.00" waitingCount="0" stopTime="0.00" timeLoss="9.82" rerouteNo="0" devices="tripinfo_Togliatti_2_8" vType="passenger2a" speedFactor="1.10" vaporized=""/>
    <tripinfo id="Costa_12_0" depart="0.00" departLane="78[0]_0" departPos="0.00" departSpeed="0.00" departDelay="0.00" arrival="112.00" arrivalLane="136_0" arrivalPos="188.65" arrivalSpeed="14.22" duration="112.00" routeLength="1418.11" waitingTime="0.00" waitingCount="0" stopTime="0.00" timeLoss="17.40" rerouteNo="0" devices="tripinfo_Costa_12_0" vType="passenger1" speedFactor="1.08" vaporized=""/>
    <tripinfo id="Costa_1_4" depart="14.00" departLane="78[0]_0" departPos="0.00" departSpeed="0.00" departDelay="4.00" arrival="113.00" arrivalLane="86_0" arrivalPos="323.60" arrivalSpeed="13.23" duration="99.00" routeLength="1187.89" waitingTime="0.00" waitingCount="0" stopTime="0.00" timeLoss="12.77" rerouteNo="0" devices="tripinfo_Costa_1_4" vType="passenger2a" speedFactor="0.99" vaporized=""/>
    <tripinfo id="Costa_1_2" depart="8.00" departLane="78[0]_0" departPos="0.00" departSpeed="0.00" departDelay="3.00" arrival="116.00" arrivalLane="86_1" arrivalPos="323.60" arrivalSpeed="13.43" duration="108.00" routeLength="1187.89" waitingTime="4.00" waitingCount="1" stopTime="0.00" timeLoss="23.96" rerouteNo="0" devices="tripinfo_Costa_1_2" vType="passenger2b" speedFactor="1.02" vaporized=""/>
    <tripinfo id="Costa_12_1" depart="6.00" departLane="78[0]_0" departPos="0.00" departSpeed="0.00" departDelay="4.00" arrival="122.00" arrivalLane="136_0" arrivalPos="188.65" arrivalSpeed="14.80" duration="116.00" routeLength="1418.11" waitingTime="0.00" waitingCount="0" stopTime="0.00" timeLoss="22.11" rerouteNo="0" devices="tripinfo_Costa_12_1" vType="passenger2b" speedFactor="1.09" vaporized=""/>
    <tripinfo id="Audinot_7_0" depart="0.00" departLane="131_0" departPos="0.00" departSpeed="0.00" departDelay="0.00" arrival="124.00" arrivalLane="209_0" arrivalPos="395.74" arrivalSpeed="13.02" duration="124.00" routeLength="875.18" waitingTime="46.00" waitingCount="1" stopTime="0.00" timeLoss="58.52" rerouteNo="0" devices="tripinfo_Audinot_7_0" vType="passenger4" speedFactor="0.98" vaporized=""/>
    <tripinfo id="Costa_3_21" depart="57.00" departLane="78[0]_0" departPos="0.00" departSpeed="0.00" departDelay="3.00" arrival="127.00" arrivalLane="14_0" arrivalPos="90.27" arrivalSpeed="14.45" duration="70.00" routeLength="854.03" waitingTime="0.00" waitingCount="0" stopTime="0.00" timeLoss="15.25" rerouteNo="0" devices="tripinfo_Costa_3_21" vType="passenger1" speedFactor="1.13" vaporized=""/>
    <tripinfo id="Costa_12_3" depart="11.00" departLane="78[0]_0" departPos="0.00" departSpeed="0.00" departDelay="4.00" arrival="129.00" arrivalLane="136_0" arrivalPos="188.65" arrivalSpeed="13.16" duration="118.00" routeLength="1418.11" waitingTime="0.00" waitingCount="0" stopTime="0.00" timeLoss="16.27" rerouteNo="0" devices="tripinfo_Costa_12_3" vType="passenger1" speedFactor="1.01" vaporized=""/>
    <tripinfo id="Costa_12_7" depart="19.00" departLane="78[0]_0" departPos="0.00" departSpeed="0.00" departDelay="1.00" arrival="138.00" arrivalLane="136_0" arrivalPos="188.65" arrivalSpeed="14.42" duration="119.00" routeLength="1418.11" waitingTime="0.00" waitingCount="0" stopTime="0.00" timeLoss="25.61" rerouteNo="0" devices="tripinfo_Costa_12_7" vType="passenger5" speedFactor="1.10" vaporized=""/>
    <tripinfo id="Turati_3_2" depart="69.00" departLane="195_0" departPos="0.00" departSpeed="0.00" departDelay="0.00" arrival="147.00" arrivalLane="14_0" arrivalPos="90.27" arrivalSpeed="13.79" duration="78.00" routeLength="953.01" waitingTime="0.00" waitingCount="0" stopTime="0.00" timeLoss="9.35" rerouteNo="0" devices="tripinfo_Turati_3_2" vType="ignoring1" speedFactor="1.00" vaporized=""/>
    <tripinfo id="Costa_12_9" depart="24.00" departLane="78[0]_0" departPos="0.00" departSpeed="0.00" departDelay="1.00" arrival="149.00" arrivalLane="136_0" arrivalPos="188.65" arrivalSpeed="12.11" duration="125.00" routeLength="1418.11" waitingTime="0.00" waitingCount="0" stopTime="0.00" timeLoss="12.59" rerouteNo="0" devices="tripinfo_Costa_12_9" vType="passenger3" speedFactor="0.91" vaporized=""/>
    <tripinfo id="Pepoli_8_25" depart="42.00" departLane="210_0" departPos="0.00" departSpeed="0.00" departDelay="0.00" arrival="151.00" arrivalLane="134b_0" arrivalPos="158.70" arrivalSpeed="13.56" duration="109.00" routeLength="693.78" waitingTime="47.00" waitingCount="1" stopTime="0.00" timeLoss="59.76" rerouteNo="0" devices="tripinfo_Pepoli_8_25" vType="passenger2a" speedFactor="1.03" vaporized=""/>
    <tripinfo id="Pepoli_8_28" depart="48.00" departLane="210_0" departPos="0.00" departSpeed="0.00" departDelay="0.00" arrival="152.00" arrivalLane="134b_0" arrivalPos="158.70" arrivalSpeed="15.55" duration="104.00" routeLength="693.78" waitingTime="43.00" waitingCount="1" stopTime="0.00" timeLoss="59.40" rerouteNo="0" devices="tripinfo_Pepoli_8_28" vType="passenger3" speedFactor="1.13" vaporized=""/>
    <tripinfo id="Pepoli_3_0" depart="0.00" departLane="210_2" departPos="0.00" departSpeed="0.00" departDelay="0.00" arrival="154.00" arrivalLane="14_0" arrivalPos="90.27" arrivalSpeed="12.53" duration="154.00" routeLength="1950.08" waitingTime="0.00" waitingCount="0" stopTime="0.00" timeLoss="12.96" rerouteNo="0" devices="tripinfo_Pepoli_3_0" vType="ignoring2b" speedFactor="1.00" vaporized=""/>
    <tripinfo id="Togliatti_12_15" depart="21.00" departLane="85_2" departPos="0.00" departSpeed="0.00" departDelay="0.00" arrival="156.00" arrivalLane="136_0" arrivalPos="188.65" arrivalSpeed="12.33" duration="135.00" routeLength="912.56" waitingTime="51.00" waitingCount="1" stopTime="0.00" timeLoss="64.42" rerouteNo="0" devices="tripinfo_Togliatti_12_15" vType="passenger3" speedFactor="0.94" vaporized=""/>
    <tripinfo id="Pepoli_3_2" depart="3.00" departLane="210_2" departPos="0.00" departSpeed="0.00" departDelay="0.00" arrival="157.00" arrivalLane="14_0" arrivalPos="90.27" arrivalSpeed="12.99" duration="154.00" routeLength="1950.08" waitingTime="0.00" waitingCount="0" stopTime="0.00" timeLoss="13.06" rerouteNo="0" devices="tripinfo_Pepoli_3_2" vType="ignoring1" speedFactor="1.00" vaporized=""/>
    <tripinfo id="Silvani_11_9" depart="21.00" departLane="203[0]_0" departPos="0.00" departSpeed="0.00" departDelay="0.00" arrival="158.00" arrivalLane="114_2" arrivalPos="693.37" arrivalSpeed="14.93" duration="137.00" routeLength="1114.20" waitingTime="46.00" waitingCount="1" stopTime="0.00" timeLoss="66.27" rerouteNo="0" devices="tripinfo_Silvani_11_9" vType="passenger4" speedFactor="1.15" vaporized=""/>
    <tripinfo id="bus_81_0" depart="4.00" departLane="55_0" departPos="0.00" departSpeed="0.00" departDelay="4.00" arrival="159.00" arrivalLane="114_0" arrivalPos="693.37" arrivalSpeed="13.79" duration="155.00" routeLength="1058.61" waitingTime="10.00" waitingCount="1" stopTime="42.00" timeLoss="36.16" rerouteNo="0" devices="tripinfo_bus_81_0" vType="bus" speedFactor="1.00" vaporized=""/>
    <tripinfo id="Togliatti_12_24" depart="34.00" departLane="85_2" departPos="0.00" departSpeed="0.00" departDelay="0.00" arrival="159.00" arrivalLane="136_0" arrivalPos="188.65" arrivalSpeed="12.20" duration="125.00" routeLength="912.56" waitingTime="39.00" waitingCount="1" stopTime="0.00" timeLoss="54.88" rerouteNo="0" devices="tripinfo_Togliatti_12_24" vType="passenger1" speedFactor="0.95" vaporized=""/>
    <tripinfo id="bus_13_0" depart="0.00" departLane="55_0" departPos="0.00" departSpeed="0.00" departDelay="0.00" arrival="160.00" arrivalLane="114_1" arrivalPos="693.37" arrivalSpeed="12.64" duration="160.00" routeLength="1058.61" waitingTime="19.00" waitingCount="1" stopTime="42.00" timeLoss="41.06" rerouteNo="0" devices="tripinfo_bus_13_0" vType="bus" speedFactor="1.00" vaporized=""/>
    <tripinfo id="Togliatti_12_48" depart="68.00" departLane="85_2" departPos="0.00" departSpeed="0.00" departDelay="0.00" arrival="161.00" arrivalLane="136_0" arrivalPos="188.65" arrivalSpeed="13.93" duration="93.00" routeLength="912.56" waitingTime="8.00" waitingCount="1" stopTime="0.00" timeLoss="28.95" rerouteNo="0" devices="tripinfo_Togliatti_12_48" vType="passenger2a" speedFactor="1.04" vaporized=""/>
    <tripinfo id="Togliatti_12_59" depart="84.00" departLane="85_2" departPos="0.00" departSpeed="0.00" departDelay="0.00" arrival="162.00" arrivalLane="136_0" arrivalPos="188.65" arrivalSpeed="14.70" duration="78.00" routeLength="912.56" waitingTime="0.00" waitingCount="0" stopTime="0.00" timeLoss="19.07" rerouteNo="0" devices="tripinfo_Togliatti_12_59" vType="passenger1" speedFactor="1.12" vaporized=""/>
    <tripinfo id="Silvani_11_1" depart="3.00" departLane="203[0]_0" departPos="0.00" departSpeed="0.00" departDelay="1.00" arrival="163.00" arrivalLane="114_0" arrivalPos="693.37" arrivalSpeed="12.60" duration="160.00" routeLength="1114.20" waitingTime="54.00" waitingCount="1" stopTime="0.00" timeLoss="72.57" rerouteNo="0" devices="tripinfo_Silvani_11_1" vType="passenger2b" speedFactor="0.92" vaporized=""/>
    <tripinfo id="Silvani_11_13" depart="30.00" departLane="203[0]_0" departPos="0.00" departSpeed="0.00" departDelay="0.00" arrival="164.00" arrivalLane="114_2" arrivalPos="693.37" arrivalSpeed="14.48" duration="134.00" routeLength="1114.20" waitingTime="42.00" waitingCount="1" stopTime="0.00" timeLoss="57.34" rerouteNo="0" devices="tripinfo_Silvani_11_13" vType="passenger1" speedFactor="1.06" vaporized=""/>
    <tripinfo id="Pepoli_8_44" depart="75.00" departLane="210_0" departPos="0.00" departSpeed="0.00" departDelay="0.00" arrival="164.00" arrivalLane="134b_0" arrivalPos="158.70" arrivalSpeed="11.03" duration="89.00" routeLength="693.78" waitingTime="19.00" waitingCount="1" stopTime="0.00" timeLoss="30.26" rerouteNo="0" devices="tripinfo_Pepoli_8_44" vType="passenger3" speedFactor="0.85" vaporized=""/>
    <tripinfo id="Silvani_11_14" depart="33.00" departLane="203[0]_0" departPos="0.00" departSpeed="0.00" departDelay="0.00" arrival="165.00" arrivalLane="114_2" arrivalPos="693.37" arrivalSpeed="15.53" duration="132.00" routeLength="1114.20" waitingTime="39.00" waitingCount="1" stopTime="0.00" timeLoss="61.62" rerouteNo="0" devices="tripinfo_Silvani_11_14" vType="passenger3" speedFactor="1.14" vaporized=""/>
    <tripinfo id="Pepoli_8_48" depart="82.00" departLane="210_0" departPos="0.00" departSpeed="0.00" departDelay="0.00" arrival="166.00" arrivalLane="134b_0" arrivalPos="158.70" arrivalSpeed="14.01" duration="84.00" routeLength="693.78" waitingTime="18.00" waitingCount="1" stopTime="0.00" timeLoss="38.69" rerouteNo="0" devices="tripinfo_Pepoli_8_48" vType="passenger2a" speedFactor="1.11" vaporized=""/>
    <tripinfo id="Silvani_11_0" depart="0.00" departLane="203[0]_0" departPos="0.00" departSpeed="0.00" departDelay="0.00" arrival="167.00" arrivalLane="114_0" arrivalPos="693.37" arrivalSpeed="10.44" duration="167.00" routeLength="1114.20" waitingTime="56.00" waitingCount="1" stopTime="0.00" timeLoss="70.48" rerouteNo="0" devices="tripinfo_Silvani_11_0" vType="passenger3" speedFactor="0.83" vaporized=""/>
    <tripinfo id="Silvani_11_8" depart="18.00" departLane="203[0]_0" departPos="0.00" departSpeed="0.00" departDelay="0.00" arrival="167.00" arrivalLane="114_1" arrivalPos="693.37" arrivalSpeed="12.45" duration="149.00" routeLength="1114.20" waitingTime="48.00" waitingCount="1" stopTime="0.00" timeLoss="65.55" rerouteNo="0" devices="tripinfo_Silvani_11_8" vType="passenger3" speedFactor="0.96" vaporized=""/>
    <tripinfo id="Pepoli_8_51" depart="87.00" departLane="210_0" departPos="0.00" departSpeed="0.00" departDelay="0.00" arrival="168.00" arrivalLane="134b_0" arrivalPos="158.70" arrivalSpeed="12.57" duration="81.00" routeLength="693.78" waitingTime="13.00" waitingCount="1" stopTime="0.00" timeLoss="27.09" rerouteNo="0" devices="tripinfo_Pepoli_8_51" vType="passenger1" speedFactor="0.94" vaporized=""/>
    <tripinfo id="Silvani_11_12" depart="28.00" departLane="203[0]_0" departPos="0.00" departSpeed="0.00" departDelay="0.00" arrival="169.00" arrivalLane="114_1" arrivalPos="693.37" arrivalSpeed="13.02" duration="141.00" routeLength="1114.20" waitingTime="42.00" waitingCount="1" stopTime="0.00" timeLoss="58.38" rerouteNo="0" devices="tripinfo_Silvani_11_12" vType="passenger2b" speedFactor="0.98" vaporized=""/>
    <tripinfo id="Silvani_11_16" depart="37.00" departLane="203[0]_0" departPos="0.00" departSpeed="0.00" departDelay="0.00" arrival="169.00" arrivalLane="114_2" arrivalPos="693.37" arrivalSpeed="13.74" duration="132.00" routeLength="1114.20" waitingTime="39.00" waitingCount="1" stopTime="0.00" timeLoss="53.28" rerouteNo="0" devices="tripinfo_Silvani_11_16" vType="passenger3" speedFactor="1.02" vaporized=""/>
    <tripinfo id="Pepoli_10_4" depart="6.00" departLane="210_0" departPos="0.00" departSpeed="0.00" departDelay="0.00" arrival="170.00" arrivalLane="204[1][1]_0" arrivalPos="436.47" arrivalSpeed="11.89" duration="164.00" routeLength="1470.53" waitingTime="33.00" waitingCount="1" stopTime="0.00" timeLoss="44.85" rerouteNo="0" devices="tripinfo_Pepoli_10_4" vType="passenger2b" speedFactor="0.89" vaporized=""/>
    <tripinfo id="Pepoli_10_10" depart="17.00" departLane="210_0" departPos="0.00" departSpeed="0.00" departDelay="0.00" arrival="170.00" arrivalLane="204[1][1]_2" arrivalPos="436.47" arrivalSpeed="16.03" duration="153.00" routeLength="1470.53" waitingTime="30.00" waitingCount="2" stopTime="0.00" timeLoss="62.02" rerouteNo="0" devices="tripinfo_Pepoli_10_10" vType="passenger2a" speedFactor="1.17" vaporized=""/>
    <tripinfo id="Vittorio_Veneto_1_4" depart="18.00" departLane="224[0]_0" departPos="0.00" departSpeed="0.00" departDelay="0.00" arrival="170.00" arrivalLane="86_0" arrivalPos="323.60" arrivalSpeed="13.49" duration="152.00" routeLength="1147.97" waitingTime="54.00" waitingCount="1" stopTime="0.00" timeLoss="68.20" rerouteNo="0" devices="tripinfo_Vittorio_Veneto_1_4" vType="passenger1" speedFactor="1.00" vaporized=""/>
    <tripinfo id="bus_91_0" depart="8.00" departLane="55_0" departPos="0.00" departSpeed="0.00" departDelay="8.00" arrival="172.00" arrivalLane="114_0" arrivalPos="693.37" arrivalSpeed="13.69" duration="164.00" routeLength="1058.61" waitingTime="21.00" waitingCount="1" stopTime="42.00" timeLoss="45.50" rerouteNo="0" devices="tripinfo_bus_91_0" vType="bus" speedFactor="1.00" vaporized=""/>
    <tripinfo id="Togliatti_71_2" depart="2.00" departLane="85_1" departPos="0.00" departSpeed="0.00" departDelay="0.00" arrival="172.00" arrivalLane="209_0" arrivalPos="395.74" arrivalSpeed="15.37" duration="170.00" routeLength="2033.40" waitingTime="22.00" waitingCount="2" stopTime="0.00" timeLoss="38.89" rerouteNo="0" devices="tripinfo_Togliatti_71_2" vType="passenger1" speedFactor="1.12" vaporized=""/>
    <tripinfo id="Silvani_7_4" depart="9.00" departLane="203[0]_1" departPos="0.00" departSpeed="0.00" departDelay="0.00" arrival="172.00" arrivalLane="209_2" arrivalPos="395.74" arrivalSpeed="14.70" duration="163.00" routeLength="1455.38" waitingTime="56.00" waitingCount="1" stopTime="0.00" timeLoss="71.93" rerouteNo="0" devices="tripinfo_Silvani_7_4" vType="passenger2a" speedFactor="1.15" vaporized=""/>
    <tripinfo id="XXI_Aprile_2_12" depart="42.00" departLane="13_0" departPos="0.00" departSpeed="0.00" departDelay="0.00" arrival="172.00" arrivalLane="77[1][1]_0" arrivalPos="464.92" arrivalSpeed="14.45" duration="130.00" routeLength="980.44" waitingTime="43.00" waitingCount="2" stopTime="0.00" timeLoss="65.13" rerouteNo="0" devices="tripinfo_XXI_Aprile_2_12" vType="passenger4" speedFactor="1.10" vaporized=""/>
    <tripinfo id="Silvani_11_24" depart="56.00" departLane="203[0]_0" departPos="0.00" departSpeed="0.00" departDelay="0.00" arrival="172.00" arrivalLane="114_1" arrivalPos="693.37" arrivalSpeed="14.65" duration="116.00" routeLength="1114.20" waitingTime="23.00" waitingCount="1" stopTime="0.00" timeLoss="39.84" rerouteNo="0" devices="tripinfo_Silvani_11_24" vType="passenger1" speedFactor="1.06" vaporized=""/>
    <tripinfo id="Pepoli_8_62" depart="106.00" departLane="210_0" departPos="0.00" departSpeed="0.00" departDelay="0.00" arrival="172.00" arrivalLane="134b_0" arrivalPos="158.70" arrivalSpeed="11.30" duration="66.00" routeLength="693.78" waitingTime="0.00" waitingCount="0" stopTime="0.00" timeLoss="9.97" rerouteNo="0" devices="tripinfo_Pepoli_8_62" vType="passenger1" speedFactor="0.90" vaporized=""/>
    <tripinfo id="Pepoli_10_20" depart="34.00" departLane="210_0" departPos="0.00" departSpeed="0.00" departDelay="0.00" arrival="173.00" arrivalLane="204[1][1]_1" arrivalPos="436.47" arrivalSpeed="13.44" duration="139.00" routeLength="1470.53" waitingTime="14.00" waitingCount="1" stopTime="0.00" timeLoss="29.52" rerouteNo="0" devices="tripinfo_Pepoli_10_20" vType="passenger2a" speedFactor="0.97" vaporized=""/>
    <tripinfo id="Silvani_11_27" depart="63.00" departLane="203[0]_0" departPos="0.00" departSpeed="0.00" departDelay="0.00" arrival="173.00" arrivalLane="114_2" arrivalPos="693.37" arrivalSpeed="14.56" duration="110.00" routeLength="1114.20" waitingTime="20.00" waitingCount="1" stopTime="0.00" timeLoss="34.92" rerouteNo="0" devices="tripinfo_Silvani_11_27" vType="passenger2a" speedFactor="1.07" vaporized=""/>
    <tripinfo id="Pepoli_8_70" depart="121.00" departLane="210_0" departPos="0.00" departSpeed="0.00" departDelay="1.00" arrival="173.00" arrivalLane="134b_0" arrivalPos="158.70" arrivalSpeed="15.27" duration="52.00" routeLength="693.78" waitingTime="0.00" waitingCount="0" stopTime="0.00" timeLoss="7.11" rerouteNo="0" devices="tripinfo_Pepoli_8_70" vType="passenger1" speedFactor="1.11" vaporized=""/>
    <tripinfo id="Pepoli_10_11" depart="19.00" departLane="210_0" departPos="0.00" departSpeed="0.00" departDelay="1.00" arrival="174.00" arrivalLane="204[1][1]_0" arrivalPos="436.47" arrivalSpeed="12.06" duration="155.00" routeLength="1470.53" waitingTime="21.00" waitingCount="1" stopTime="0.00" timeLoss="36.75" rerouteNo="0" devices="tripinfo_Pepoli_10_11" vType="passenger4" speedFactor="0.90" vaporized=""/>
    <tripinfo id="Togliatti_71_0" depart="0.00" departLane="85_1" departPos="0.00" departSpeed="0.00" departDelay="0.00" arrival="175.00" arrivalLane="209_0" arrivalPos="395.74" arrivalSpeed="13.50" duration="175.00" routeLength="2033.40" waitingTime="13.00" waitingCount="1" stopTime="0.00" timeLoss="27.50" rerouteNo="0" devices="tripinfo_Togliatti_71_0" vType="passenger2b" speedFactor="1.00" vaporized=""/>
    <tripinfo id="Silvani_11_17" depart="40.00" departLane="203[0]_0" departPos="0.00" departSpeed="0.00" departDelay="0.00" arrival="175.00" arrivalLane="114_0" arrivalPos="693.37" arrivalSpeed="11.83" duration="135.00" routeLength="1114.20" waitingTime="34.00" waitingCount="1" stopTime="0.00" timeLoss="49.80" rerouteNo="0" devices="tripinfo_Silvani_11_17" vType="passenger3" speedFactor="0.94" vaporized=""/>
    <tripinfo id="Togliatti_2_32" depart="47.00" departLane="85_0" departPos="0.00" departSpeed="0.00" departDelay="2.00" arrival="176.00" arrivalLane="77[1][1]_0" arrivalPos="464.92" arrivalSpeed="13.82" duration="129.00" routeLength="1149.26" waitingTime="33.00" waitingCount="1" stopTime="0.00" timeLoss="48.49" rerouteNo="0" devices="tripinfo_Togliatti_2_32" vType="passenger3" speedFactor="1.04" vaporized=""/>
    <tripinfo id="Silvani_11_32" depart="76.00" departLane="203[0]_0" departPos="0.00" departSpeed="0.00" departDelay="1.00" arrival="176.00" arrivalLane="114_2" arrivalPos="693.37" arrivalSpeed="13.96" duration="100.00" routeLength="1114.20" waitingTime="9.00" waitingCount="1" stopTime="0.00" timeLoss="22.76" rerouteNo="0" devices="tripinfo_Silvani_11_32" vType="passenger5" speedFactor="1.04" vaporized=""/>
    <tripinfo id="Pepoli_10_19" depart="32.00" departLane="210_1" departPos="0.00" departSpeed="0.00" departDelay="0.00" arrival="177.00" arrivalLane="204[1][1]_0" arrivalPos="436.47" arrivalSpeed="12.27" duration="145.00" routeLength="1470.53" waitingTime="12.00" waitingCount="1" stopTime="0.00" timeLoss="27.72" rerouteNo="0" devices="tripinfo_Pepoli_10_19" vType="passenger1" speedFactor="0.91" vaporized=""/>
    <tripinfo id="Togliatti_3_31" depart="44.00" departLane="85_0" departPos="0.00" departSpeed="0.00" departDelay="0.00" arrival="177.00" arrivalLane="14_0" arrivalPos="90.27" arrivalSpeed="13.53" duration="133.00" routeLength="1114.84" waitingTime="34.00" waitingCount="1" stopTime="0.00" timeLoss="55.07" rerouteNo="0" devices="tripinfo_Togliatti_3_31" vType="passenger1" speedFactor="1.04" vaporized=""/>
    <tripinfo id="Silvani_7_7" depart="16.00" departLane="203[0]_1" departPos="0.00" departSpeed="0.00" departDelay="0.00" arrival="178.00" arrivalLane="209_0" arrivalPos="395.74" arrivalSpeed="13.77" duration="162.00" routeLength="1455.38" waitingTime="47.00" waitingCount="1" stopTime="0.00" timeLoss="62.78" rerouteNo="0" devices="tripinfo_Silvani_7_7" vType="passenger2a" speedFactor="1.06" vaporized=""/>
    <tripinfo id="Silvani_11_23" depart="54.00" departLane="203[0]_0" departPos="0.00" departSpeed="0.00" departDelay="0.00" arrival="178.00" arrivalLane="114_1" arrivalPos="693.37" arrivalSpeed="11.80" duration="124.00" routeLength="1114.20" waitingTime="23.00" waitingCount="1" stopTime="0.00" timeLoss="36.06" rerouteNo="0" devices="tripinfo_Silvani_11_23" vType="passenger3" speedFactor="0.91" vaporized=""/>
    <tripinfo id="Silvani_11_33" depart="79.00" departLane="203[0]_0" departPos="0.00" departSpeed="0.00" departDelay="2.00" arrival="178.00" arrivalLane="114_0" arrivalPos="693.37" arrivalSpeed="13.20" duration="99.00" routeLength="1114.20" waitingTime="7.00" waitingCount="1" stopTime="0.00" timeLoss="21.36" rerouteNo="0" devices="tripinfo_Silvani_11_33" vType="passenger1" speedFactor="1.04" vaporized=""/>
    <tripinfo id="Pepoli_10_18" depart="30.00" departLane="210_0" departPos="0.00" departSpeed="0.00" departDelay="0.00" arrival="179.00" arrivalLane="204[1][1]_1" arrivalPos="436.47" arrivalSpeed="13.79" duration="149.00" routeLength="1470.53" waitingTime="22.00" waitingCount="2" stopTime="0.00" timeLoss="48.19" rerouteNo="0" devices="tripinfo_Pepoli_10_18" vType="passenger1" speedFactor="1.05" vaporized=""/>
    <tripinfo id="Pepoli_8_75" depart="128.00" departLane="210_0" departPos="0.00" departSpeed="0.00" departDelay="0.00" arrival="179.00" arrivalLane="134b_0" arrivalPos="158.70" arrivalSpeed="15.66" duration="51.00" routeLength="693.78" waitingTime="0.00" waitingCount="0" stopTime="0.00" timeLoss="9.40" rerouteNo="0" devices="tripinfo_Pepoli_8_75" vType="passenger2b" speedFactor="1.22" vaporized=""/>
    <tripinfo id="Togliatti_3_18" depart="25.00" departLane="85_0" departPos="0.00" departSpeed="0.00" departDelay="0.00" arrival="181.00" arrivalLane="14_0" arrivalPos="90.27" arrivalSpeed="12.23" duration="156.00" routeLength="1114.84" waitingTime="47.00" waitingCount="2" stopTime="0.00" timeLoss="68.08" rerouteNo="0" devices="tripinfo_Togliatti_3_18" vType="passenger2a" speedFactor="0.92" vaporized=""/>
    <tripinfo id="Silvani_11_41" depart="96.00" departLane="203[0]_0" departPos="0.00" departSpeed="0.00" departDelay="0.00" arrival="181.00" arrivalLane="114_1" arrivalPos="693.37" arrivalSpeed="16.00" duration="85.00" routeLength="1114.20" waitingTime="0.00" waitingCount="0" stopTime="0.00" timeLoss="15.30" rerouteNo="0" devices="tripinfo_Silvani_11_41" vType="passenger1" speedFactor="1.16" vaporized=""/>
    <tripinfo id="Pepoli_10_22" depart="37.00" departLane="210_1" departPos="0.00" departSpeed="0.00" departDelay="0.00" arrival="183.00" arrivalLane="204[1][1]_0" arrivalPos="436.47" arrivalSpeed="11.30" duration="146.00" routeLength="1470.53" waitingTime="5.00" waitingCount="1" stopTime="0.00" timeLoss="23.00" rerouteNo="0" devices="tripinfo_Pepoli_10_22" vType="passenger2a" speedFactor="0.87" vaporized=""/>
    <tripinfo id="Togliatti_3_39" depart="55.00" departLane="85_0" departPos="0.00" departSpeed="0.00" departDelay="0.00" arrival="183.00" arrivalLane="14_0" arrivalPos="90.27" arrivalSpeed="12.41" duration="128.00" routeLength="1114.84" waitingTime="29.00" waitingCount="1" stopTime="0.00" timeLoss="45.53" rerouteNo="0" devices="tripinfo_Togliatti_3_39" vType="passenger2b" speedFactor="0.98" vaporized=""/>
    <tripinfo id="Turati_10_0" depart="0.00" departLane="195_0" departPos="0.00" departSpeed="0.00" departDelay="0.00" arrival="184.00" arrivalLane="204[1][1]_1" arrivalPos="436.47" arrivalSpeed="11.50" duration="184.00" routeLength="2048.37" waitingTime="0.00" waitingCount="0" stopTime="0.00" timeLoss="17.34" rerouteNo="0" devices="tripinfo_Turati_10_0" vType="passenger4" speedFactor="0.89" vaporized=""/>
    <tripinfo id="Silvani_7_2" depart="4.00" departLane="203[0]_1" departPos="0.00" departSpeed="0.00" departDelay="0.00" arrival="185.00" arrivalLane="209_0" arrivalPos="395.74" arrivalSpeed="12.36" duration="181.00" routeLength="1455.38" waitingTime="57.00" waitingCount="1" stopTime="0.00" timeLoss="70.32" rerouteNo="0" devices="tripinfo_Silvani_7_2" vType="passenger1" speedFactor="0.95" vaporized=""/>
    <tripinfo id="Costa_3_33" depart="90.00" departLane="78[0]_0" departPos="0.00" departSpeed="0.00" departDelay="4.00" arrival="186.00" arrivalLane="14_0" arrivalPos="90.27" arrivalSpeed="12.22" duration="96.00" routeLength="854.03" waitingTime="7.00" waitingCount="1" stopTime="0.00" timeLoss="30.66" rerouteNo="0" devices="tripinfo_Costa_3_33" vType="passenger2b" speedFactor="0.95" vaporized=""/>
    <tripinfo id="Pepoli_11_5" depart="8.00" departLane="210_1" departPos="0.00" departSpeed="0.00" departDelay="0.00" arrival="187.00" arrivalLane="114_1" arrivalPos="693.37" arrivalSpeed="15.22" duration="179.00" routeLength="1737.25" waitingTime="40.00" waitingCount="2" stopTime="0.00" timeLoss="68.18" rerouteNo="0" devices="tripinfo_Pepoli_11_5" vType="passenger1" speedFactor="1.13" vaporized=""/>
    <tripinfo id="Turati_10_1" depart="34.00" departLane="195_0" departPos="0.00" departSpeed="0.00" departDelay="0.00" arrival="187.00" arrivalLane="204[1][1]_1" arrivalPos="436.47" arrivalSpeed="14.60" duration="153.00" routeLength="2048.37" waitingTime="0.00" waitingCount="0" stopTime="0.00" timeLoss="14.80" rerouteNo="0" devices="tripinfo_Turati_10_1" vType="passenger1" speedFactor="1.07" vaporized=""/>
    <tripinfo id="Togliatti_2_40" depart="57.00" departLane="85_0" departPos="0.00" departSpeed="0.00" departDelay="1.00" arrival="187.00" arrivalLane="77[1][1]_0" arrivalPos="464.92" arrivalSpeed="12.14" duration="130.00" routeLength="1149.26" waitingTime="27.00" waitingCount="1" stopTime="0.00" timeLoss="42.58" rerouteNo="0" devices="tripinfo_Togliatti_2_40" vType="passenger2b" speedFactor="0.96" vaporized=""/>